# ODT 1.0
# Table Start
# Title: mmArchive Data Table, Mon Jul 27 14:33:29 BST 2015
# Columns: \
# {Oxs_TimeDriver::Simulation time} Oxs_TimeDriver::mx Oxs_TimeDriver::my Oxs_TimeDriver::mz
# Units: \
# s               {}              {}              {}             
  5.0000000000000005e-12 0.78662352022947701 0.59300728835564853 0.00085095870781711196
  1.0000000000000001e-11 0.78718102446904192 0.5922568857828866 0.0016249449841726073
  1.5e-11         0.78805076382842254 0.59108544479804237 0.002258184090818171
  1.9999999999999999e-11 0.78915712248278469 0.58959396045059997 0.0027008336970357387
  2.4999999999999998e-11 0.79040698087578165 0.58790710614468678 0.0029209341308031453
  3e-11           0.79169812065734924 0.58616223019434743 0.0029074753100526395
  3.5000000000000002e-11 0.79292838225846896 0.58449725193631596 0.0026697204983623176
  4.0000000000000004e-11 0.79400446069238362 0.58303846235478762 0.0022358234096654423
  4.5000000000000006e-11 0.79484905942608652 0.58189084259789392 0.0016487214811374102
  5.0000000000000008e-11 0.79540674830168889 0.58112956933327276 0.00096164120687834882
  5.500000000000001e-11 0.79564695167947153 0.58079602964098587 0.00023276333516169783
  6.0000000000000013e-11 0.79556539259726788 0.58089583221992003 -0.00048023931303165765
  6.5000000000000008e-11 0.79518309779540786 0.58140034740457958 -0.0011244261072713619
  7.0000000000000004e-11 0.79454253949556419 0.58225247313275863 -0.0016558672985147618
  7.5e-11         0.79370307280368479 0.58337314166583942 -0.0020426072529487753
  7.9999999999999995e-11 0.79273555638192661 0.58466876357935571 -0.0022663780511918983
  8.4999999999999991e-11 0.79171641437036966 0.58603850169459304 -0.0023223483256985889
  8.9999999999999986e-11 0.79072094554693562 0.58738297176810894 -0.0022182251545547417
  9.4999999999999982e-11 0.78981737723262235 0.58861177117760743 -0.0019723838980130596
  9.9999999999999978e-11 0.78906197373962905 0.58964987763354737 -0.0016116384804907614
  1.0499999999999997e-10 0.78849577470243493 0.59044190118188278 -0.001168404974694841
  1.0999999999999997e-10 0.7881431118988006 0.59095373869923717 -0.00067794028124043906
  1.1499999999999996e-10 0.78801152838624289 0.59117255592415796 -0.00017521366089839516
  1.1999999999999997e-10 0.78809289201518895 0.59110515909590522 0.00030736451571031486
  1.2499999999999998e-10 0.78836613531490252 0.59077471063905584 0.00074237766144810973
  1.2999999999999999e-10 0.78880027871778757 0.59021686985577559 0.0011087423978398501
  1.35e-10        0.78935785197678066 0.58947626948553189 0.0013924234875253871
  1.4000000000000001e-10 0.78999831693523792 0.58860336088335341 0.0015860023040273135
  1.4500000000000002e-10 0.79068178290662472 0.587650398950607 0.001687656935247483
  1.5000000000000002e-10 0.79137142705297248 0.58666888150483198 0.0016999511193888706
  1.5500000000000003e-10 0.7920349439155413 0.58570754168162731 0.0016282320663933119
  1.6000000000000004e-10 0.79264473884451847 0.58481190985285092 0.0014796264914056214
  1.6500000000000005e-10 0.79317742084288589 0.58402388131996708 0.0012620378746116584
  1.7000000000000006e-10 0.79361313876680983 0.58338113916707401 0.00098405596935176353
  1.7500000000000007e-10 0.79393486438845506 0.58291587821234503 0.00065524785879636797
  1.8000000000000008e-10 0.79412789243092818 0.58265335331736456 0.00028694680183890181
  1.8500000000000008e-10 0.79417977322165179 0.58261104828146326 -0.00010690132618290671
  1.9000000000000009e-10 0.79408141943277377 0.5827967859081038 -0.00050932880757602848
  1.950000000000001e-10 0.79382863392462155 0.58320750857897063 -0.00089994285468965318
  2.0000000000000011e-10 0.79342389974232586 0.58382862450124784 -0.0012558707578802235
  2.0500000000000012e-10 0.79287847160964864 0.58463357818932449 -0.0015530362831158162
  2.1000000000000013e-10 0.79221391323029966 0.58558365905261001 -0.0017682955479706199
  2.1500000000000014e-10 0.79146285606339029 0.58662816077070201 -0.0018814799297733123
  2.2000000000000015e-10 0.79066802666738445 0.58770648996098496 -0.0018776049310550835
  2.2500000000000015e-10 0.78988006328962423 0.58875122284176595 -0.0017488189229473696
  2.3000000000000016e-10 0.78915406493223961 0.5896927445270842 -0.0014959837716778668
  2.3500000000000017e-10 0.78854553277229911 0.59046388698334595 -0.0011295823443923496
  2.4000000000000015e-10 0.78810579494381083 0.59100455600885826 -0.00066952745764472079
  2.4500000000000014e-10 0.78787697348575902 0.59126688158101981 -0.00014418153264748076
  2.5000000000000012e-10 0.78788756075457733 0.59121983899381503 0.00041137024093314213
  2.550000000000001e-10 0.78814874068842355 0.59085292705862336 0.00095788692914576588
  2.6000000000000008e-10 0.78865210373074546 0.59017837188338096 0.001454691241762725
  2.6500000000000007e-10 0.78936905897847975 0.58923196464397631 0.0018627534112794161
  2.7000000000000005e-10 0.79025215903203516 0.5880720218468628 0.0021476640201426424
  2.7500000000000003e-10 0.79123852879348222 0.58677588244716694 0.0022826855302214011
  2.8000000000000002e-10 0.79225456997723354 0.5854349541147772 0.0022514686287750971
  2.85e-10        0.79322197210644496 0.58414815625754379 0.0020500840543917916
  2.8999999999999998e-10 0.79406412724668196 0.58301474365617323 0.001688191066892364
  2.9499999999999996e-10 0.79471277075132207 0.58212654965063959 0.0011889416806384453
  2.9999999999999995e-10 0.79511399676546746 0.5815597983739752 0.00058799583866450851
  3.0499999999999993e-10 0.79523299860863617 0.5813674245192435 -6.9005820221663519e-05
  3.0999999999999991e-10 0.79505738045505736 0.58157293558378442 -0.00073004116639162103
  3.1499999999999989e-10 0.79459829996233977 0.58216733525935882 -0.0013411332675662469
  3.1999999999999988e-10 0.7938899621711033 0.58310861722043072 -0.0018514238622317236
  3.2499999999999986e-10 0.79298697357664905 0.58432471814106901 -0.0022179038562340661
  3.2999999999999984e-10 0.79196013208295135 0.58571950927202154 -0.0024098739876800201
  3.3499999999999983e-10 0.79089059112119631 0.58718133814032936 -0.002411729869762882
  3.3999999999999981e-10 0.78986302964926003 0.58859303718516254 -0.0022246353749959067
  3.4499999999999979e-10 0.78895838762130444 0.5898423168928385 -0.0018660463837235314
  3.4999999999999977e-10 0.78824669808083225 0.59083169392080792 -0.0013679673709152749
  3.5499999999999976e-10 0.78778119951890579 0.5914867159890933 -0.00077357958904735488
  3.5999999999999974e-10 0.7875936855114779 0.59176243158514841 -0.0001329132531859988
  3.6499999999999972e-10 0.78769223427893542 0.5916462848189985 0.00050173458201994232
  3.699999999999997e-10 0.7880611947966748 0.5911577418574776 0.0010805010759960783
  3.7499999999999969e-10 0.78866354002506489 0.59034517105403683 0.001560015670114608
  3.7999999999999967e-10 0.78944499114220623 0.58928074871432456 0.0019069158671083724
  3.8499999999999965e-10 0.79033943757343816 0.58805369203406355 0.0021000353792610341
  3.8999999999999964e-10 0.79127522523444183 0.58676221711880716 0.0021315311193276332
  3.9499999999999962e-10 0.79218122480747333 0.58550545122804254 0.0020067140293640604
  3.999999999999996e-10 0.79299257677168633 0.58437532539200721 0.001742752464851951
  4.0499999999999958e-10 0.79365523061692722 0.58344966966539558 0.0013665257523227667
  4.0999999999999957e-10 0.79412932817842041 0.58278663642681972 0.00091171921813566748
  4.1499999999999955e-10 0.79439120709288635 0.58242099912325662 0.00041570188045864066
  4.1999999999999953e-10 0.79443399019587058 0.58236298798118069 -8.3721646723323122e-05
  4.2499999999999951e-10 0.79426676432336141 0.58259949255757815 -0.00055131605715394991
  4.299999999999995e-10 0.79391262141681695 0.58309691639693706 -0.00095700089847484699
  4.3499999999999948e-10 0.79340595689983284 0.58380516082791134 -0.001277696130645336
  4.3999999999999946e-10 0.79278914852876969 0.58466276164998177 -0.0014983256745134143
  4.4499999999999945e-10 0.79210881414622103 0.58560290107619106 -0.0016119909739965319
  4.4999999999999943e-10 0.79141216959967609 0.5865591142378842 -0.0016195611278037438
  4.5499999999999941e-10 0.79074364273545961 0.58747044592233177 -0.0015285979923223727
  4.5999999999999939e-10 0.79014217115129803 0.58828514470398097 -0.0013520697473834546
  4.6499999999999938e-10 0.78963929207171057 0.58896289028575333 -0.0011066654537308554
  4.6999999999999941e-10 0.78925803039936715 0.58947560618117789 -0.00081117551140469379
  4.7499999999999939e-10 0.78901255746230714 0.5898069218630273 -0.00048481778952217904
  4.7999999999999938e-10 0.78890855527170145 0.58995082380234287 -0.00014603120562454755
  4.8499999999999936e-10 0.78894416450438876 0.58990990592500936 0.00018835923500423556
  4.8999999999999934e-10 0.78911102816842205 0.58969403503272755 0.00050356520518816505
  4.9499999999999932e-10 0.78939548458199293 0.58931898322556409 0.00078675220550015253
  4.9999999999999931e-10 0.78977980869436426 0.5888052788757081 0.001026810023554488
  5.0499999999999929e-10 0.79024325202596224 0.58817766770885849 0.0012139575846801718
  5.0999999999999927e-10 0.79076281703827156 0.58746502786020316 0.0013396146547704998
  5.1499999999999926e-10 0.7913137318227591 0.58670058245043366 0.0013964712226323998
  5.1999999999999924e-10 0.79186981051036931 0.58592171892371248 0.0013789878492912776
  5.2499999999999922e-10 0.79240386232477245 0.58516919227684738 0.0012841171750347564
  5.299999999999992e-10 0.79288837221512476 0.58448538466603961 0.001112261636253724
  5.3499999999999919e-10 0.79329626478551174 0.58391215952061681 0.00086830146832405383
  5.3999999999999917e-10 0.79360198820811079 0.583488178929642 0.00056219732872171896
  5.4499999999999915e-10 0.79378308288484201 0.58324580908236867 0.00020914507873991838
  5.4999999999999913e-10 0.79382205632574732 0.58320825496551132 -0.00017085974619905015
  5.5499999999999912e-10 0.79370821715504336 0.58338727719996064 -0.00055402889963270105
  5.599999999999991e-10 0.7934394618968259 0.58378138072307417 -0.00091447622615057039
  5.6499999999999908e-10 0.79302380563820574 0.58437452908726484 -0.0012262925396332163
  5.6999999999999907e-10 0.79248026251809622 0.58513593033227052 -0.0014657103186240894
  5.7499999999999905e-10 0.79183876039598355 0.58602111788537015 -0.0016130766302454821
  5.7999999999999903e-10 0.79113887334172805 0.58697441183568921 -0.0016544482825094258
  5.8499999999999901e-10 0.79042744633413564 0.58793250596505331 -0.0015828589621679787
  5.89999999999999e-10 0.78975546801369634 0.58882855000384282 -0.0013991432412778031
  5.9499999999999898e-10 0.78917425850561373 0.5895968213172712 -0.0011121618258368455
  5.9999999999999896e-10 0.7887311495184014 0.59017774085087205 -0.00073855240318007132
  6.0499999999999894e-10 0.78846512658385837 0.59052280321051953 -0.0003019773551627146
  6.0999999999999893e-10 0.78840303390460831 0.59059877642294767 0.00016813292555646782
  6.1499999999999891e-10 0.78855658252110605 0.59039111128608657 0.00063846465696533873
  6.1999999999999889e-10 0.78892046398387261 0.58990629475057887 0.0010740874525529073
  6.2499999999999888e-10 0.78947206629996314 0.58917239453452308 0.0014410094486220562
  6.2999999999999886e-10 0.79017282906321051 0.58823780674894954 0.0017089763242883905
  6.3499999999999884e-10 0.79097116963470004 0.58716814793524885 0.0018542540200620671
  6.3999999999999882e-10 0.79180657465109039 0.58604174159710443 0.0018621971279928185
  6.4499999999999881e-10 0.7926144674949579 0.58494395381508046 0.0017290177308491969
  6.4999999999999879e-10 0.79333157934592591 0.58396047546072105 0.0014625822514544458
  6.5499999999999877e-10 0.7939013722632553 0.58317001547609515 0.0010820377206046887
  6.5999999999999875e-10 0.79427897478202603 0.5826370380023641 0.00061639866729980113
  6.6499999999999874e-10 0.79443488025944597 0.58240584353082703 0.00010217941391557519
  6.6999999999999872e-10 0.79435735878897795 0.58249624662013266 -0.00041981637104650786
  6.749999999999987e-10 0.7940533837551218 0.58290146165227941 -0.0009080437922988965
  6.7999999999999869e-10 0.7935479596191386 0.58358856459020803 -0.0013239087395293095
  6.8499999999999867e-10 0.79288193855443256 0.58450148234629529 -0.0016350935253394306
  6.8999999999999865e-10 0.79210852367519358 0.5855661308536031 -0.0018183161185345517
  6.9499999999999863e-10 0.79128882117050836 0.58669699405951004 -0.0018611329859315128
  6.9999999999999862e-10 0.79048671188951625 0.5878046588742718 -0.0017627166095048211
  7.049999999999986e-10 0.78976351653685195 0.58880348832710405 -0.0015335831536377503
  7.0999999999999858e-10 0.7891728420616263 0.58961890577368614 -0.001194355227967302
  7.1499999999999856e-10 0.78875626396056864 0.59019338378524655 -0.00077384823588374108
  7.1999999999999855e-10 0.78854035847750947 0.5904904103913321 -0.00030650167343803297
  7.2499999999999853e-10 0.78853511407827936 0.59049646059176319 0.00017059713164177485
  7.2999999999999851e-10 0.78873374717260236 0.59022109370465159 0.00062084201265767854
  7.349999999999985e-10 0.7891139554701978 0.58969522257334184 0.0010110518354523789
  7.3999999999999848e-10 0.78964049514863399 0.5889676508658036 0.0013140494509824663
  7.4499999999999846e-10 0.79026871130744369 0.58810036723353798 0.001510667668087329
  7.4999999999999844e-10 0.79094862196897631 0.58716299902482294 0.0015909883171171325
  7.5499999999999843e-10 0.79162914180161681 0.58622691436052865 0.001554704720681801
  7.5999999999999841e-10 0.7922620880514184 0.58535944313962207 0.0014105702933424067
  7.6499999999999839e-10 0.7928057003379041 0.58461865301150218 0.001175078893899163
  7.6999999999999837e-10 0.79322733001469869 0.5840492906418967 0.00087060122871135263
  7.7499999999999836e-10 0.7935051010864127 0.58368035281088404 0.00052308091315124265
  7.7999999999999834e-10 0.79362865251526937 0.58352421426052092 0.00015955743390340076
  7.8499999999999832e-10 0.79359897065804041 0.58357712302093612 -0.00019415252244718944
  7.8999999999999831e-10 0.79342731133975597 0.58382104085039677 -0.00051537451776157816
  7.9499999999999829e-10 0.79313332754182231 0.58422670383068209 -0.00078596834122279021
  7.9999999999999827e-10 0.7927427796762313 0.5847573142543524 -0.00099314928153001634
  8.0499999999999825e-10 0.79228512321290623 0.58537234454062037 -0.0011296522243798362
  8.0999999999999824e-10 0.79179121768688654 0.58603094453062221 -0.0011933809286060236
  8.1499999999999822e-10 0.79129130851060747 0.58669464041540642 -0.0011866199716751545
  8.199999999999982e-10 0.79081336785400336 0.58732913115062002 -0.0011150916159701925
  8.2499999999999819e-10 0.79038194729325717 0.58790507270925541 -0.00098692837218577502
  8.2999999999999817e-10 0.79001746078777535 0.58839807669426836 -0.00081168869884198414
  8.3499999999999815e-10 0.78973581620940025 0.58878829203763094 -0.00059960096579453445
  8.3999999999999813e-10 0.7895482803523699 0.58906009504906109 -0.00036114783290082614
  8.4499999999999812e-10 0.78946159276555739 0.58920194301890938 -0.00010699247906986076
  8.499999999999981e-10 0.78947819821680454 0.58920646858934145 0.00015196542771312891
  8.5499999999999808e-10 0.78959642584172507 0.58907095188947245 0.00040447151111317587
  8.5999999999999806e-10 0.78981058760832046 0.58879814126041374 0.00063890300889047648
  8.6499999999999805e-10 0.79011101254280769 0.58839723304870506 0.00084341193686018445
  8.6999999999999803e-10 0.79048413485359403 0.58788461386156377 0.0010063262622398233
  8.7499999999999801e-10 0.79091262961407061 0.58728415657838218 0.0011168072862880298
  8.79999999999998e-10 0.79137565245117891 0.58662683142191574 0.0011656802562861584
  8.8499999999999798e-10 0.79184926047245385 0.58594959663205404 0.0011463792128445075
  8.8999999999999796e-10 0.79230711616760896 0.58529358566373169 0.0010558891809592766
  8.9499999999999794e-10 0.79272156942135918 0.58470161131880682 0.00089555457574226442
  8.9999999999999793e-10 0.79306511972428362 0.58421526549074099 0.00067157118507696399
  9.0499999999999791e-10 0.79331224705276393 0.58387187755867209 0.00039506504849642389
  9.0999999999999789e-10 0.7934414751072919 0.58370149713066677 8.1724789872904258e-05
  9.1499999999999787e-10 0.79343746849598495 0.58372402986822569 -0.00024900901393820911
  9.1999999999999786e-10 0.79329291742637631 0.58394681443396812 -0.00057514291026918951
  9.2499999999999784e-10 0.79300996754131259 0.58436301618833508 -0.0008736352201732183
  9.2999999999999782e-10 0.79260104066856962 0.58495106252445705 -0.0011220805259721919
  9.3499999999999791e-10 0.79208887346222867 0.58567531741413081 -0.0013004355444555811
  9.3999999999999799e-10 0.79150566386372534 0.58648798805647073 -0.0013926821913305045
  9.4499999999999808e-10 0.79089125641997782 0.58733221331948149 -0.0013882898816438105
  9.4999999999999817e-10 0.79029042784672199 0.58814620770102766 -0.001283404245331046
  9.5499999999999825e-10 0.78974944806967529 0.58886810280853452 -0.0010816238121058443
  9.5999999999999834e-10 0.78931220219303866 0.58944100290128976 -0.00079428199148281824
  9.6499999999999843e-10 0.78901625580795309 0.58981780391806748 -0.00044010112100539226
  9.6999999999999851e-10 0.78888920181141486 0.58996546055659016 -4.4141483156475748e-05
  9.749999999999986e-10 0.78894570736246772 0.58986821117418509 0.0003639364271483399
  9.7999999999999868e-10 0.78918561793013575 0.5895293610813096 0.00075221742733979757
  9.8499999999999877e-10 0.78959342365022989 0.58897141202285919 0.0010892729131448853
  9.8999999999999886e-10 0.79013919657674536 0.58823457391748901 0.0013470658337328557
  9.9499999999999894e-10 0.79078097098467759 0.58737381047928905 0.0015036359063169441
  9.9999999999999903e-10 0.79146833643391767 0.58645461593308168 0.001545272795163721
  1.0049999999999991e-09 0.79214682766905087 0.58554781922757748 0.0014678815572471608
  1.0099999999999992e-09 0.79276268837615105 0.58472376738571075 0.0012773799859344668
  1.0149999999999993e-09 0.79326749836547339 0.5840464750710459 0.00098913186886509887
  1.0199999999999994e-09 0.79362225767081007 0.58356822081518289 0.00062650603157380345
  1.0249999999999995e-09 0.79380058002079124 0.58332505509342791 0.00021877595329452363
  1.0299999999999995e-09 0.79379074686229856 0.58333371501261233 -0.00020144225702445177
  1.0349999999999996e-09 0.79359643697050075 0.58359034794626874 -0.00060095326183866012
  1.0399999999999997e-09 0.79323609704918052 0.58407115867519099 -0.00094875399046419904
  1.0449999999999998e-09 0.79274108900476259 0.58473477827642661 -0.0012185572639720841
  1.0499999999999999e-09 0.79215277217337043 0.58552612438687224 -0.0013908581569226455
  1.055e-09       0.79151882857168077 0.58638134593757585 -0.0014544046480389255
  1.0600000000000001e-09 0.79088915356322587 0.58723341184601441 -0.0014069397541188809
  1.0650000000000001e-09 0.79031164759781436 0.58801782891631305 -0.0012551783616838708
  1.0700000000000002e-09 0.78982830185060371 0.58867786039410686 -0.0010140400170669463
  1.0750000000000003e-09 0.78947196032750222 0.58916877156119729 -0.00070520500051516439
  1.0800000000000004e-09 0.78926403309826176 0.5894608323851358 -0.00035508136690364824
  1.0850000000000005e-09 0.7892133107271857 0.58954093617396985 7.6297820994730846e-06
  1.0900000000000006e-09 0.78931596691841854 0.58941273593379684 0.00035451890071662738
  1.0950000000000007e-09 0.78955667440200039 0.58909539411336842 0.00065993850392545605
  1.1000000000000008e-09 0.78991062975166815 0.58862118605471225 0.00090310151696435957
  1.1050000000000008e-09 0.79034623645386048 0.5880321668411832 0.0010696037980625238
  1.1100000000000009e-09 0.79082813257578066 0.58737621261245487 0.0011522443004811748
  1.115000000000001e-09 0.79132027108675895 0.58670277438060514 0.0011510565514576423
  1.1200000000000011e-09 0.79178879951423109 0.58605875750583036 0.0010726088379393245
  1.1250000000000012e-09 0.79220445201431811 0.58548503103516336 0.00092871938940160064
  1.1300000000000013e-09 0.79254423995253054 0.58501390944963005 0.00073479272941641448
  1.1350000000000014e-09 0.79279237471630426 0.58466772137994794 0.00050800733862470758
  1.1400000000000014e-09 0.79294047368319343 0.5844584216781864 0.00026560618291675893
  1.1450000000000015e-09 0.79298711030816915 0.58438821299780519 2.3504939887658707e-05
  1.1500000000000016e-09 0.79293685948790171 0.58445095029910765 -0.00020468907009114047
  1.1550000000000017e-09 0.79279905990436961 0.58463397604925449 -0.00040819543165666709
  1.1600000000000018e-09 0.79258649204249476 0.5849200629718817 -0.00057915519710970424
  1.1650000000000019e-09 0.79231414986257898 0.58528917675665482 -0.00071237081229548796
  1.170000000000002e-09 0.79199821230344503 0.58571987120949376 -0.00080483148898467729
  1.175000000000002e-09 0.79165528069569902 0.58619018425297897 -0.00085518004799382613
  1.1800000000000021e-09 0.79130190665201938 0.58667803788923212 -0.00086324625830483371
  1.1850000000000022e-09 0.79095436744694403 0.58716128982061178 -0.00082972492037072722
  1.1900000000000023e-09 0.79062853383209986 0.58761776132290444 -0.00075602545780756054
  1.1950000000000024e-09 0.79033968172540381 0.5880254825751916 -0.0006443394528985886
  1.2000000000000025e-09 0.79010219835973494 0.58836320732475544 -0.00049789923219950365
  1.2050000000000026e-09 0.78992915060368207 0.58861121712504905 -0.00032135512590949751
  1.2100000000000026e-09 0.78983168121198921 0.58875243495629181 -0.00012115088102221667
  1.2150000000000027e-09 0.78981824197867012 0.58877379544998387 9.421358307880254e-05
  1.2200000000000028e-09 0.78989373650098516 0.58866769839877064 0.0003141429106133078
  1.2250000000000029e-09 0.79005866657562551 0.58843337514673666 0.00052621177148854509
  1.230000000000003e-09 0.79030840212447417 0.58807796661296252 0.0007167596194564348
  1.2350000000000031e-09 0.79063269338783715 0.58761712261248722 0.00087179674923865483
  1.2400000000000032e-09 0.79101554630944459 0.58707495828348555 0.00097814792701692564
  1.2450000000000032e-09 0.79143559738068969 0.58648321718973806 0.0010247231357136586
  1.2500000000000033e-09 0.79186705283691217 0.58587963328171544 0.0010037952191576515
  1.2550000000000034e-09 0.79228114782209891 0.5853056188069049 0.0009121265673342117
  1.2600000000000035e-09 0.79264804132782285 0.58480342633197002 0.00075177587576925658
  1.2650000000000036e-09 0.79293905415618926 0.58441288516315359 0.00053044678222760404
  1.2700000000000037e-09 0.79312909412852872 0.5841679116836771 0.0002613181022417374
  1.2750000000000038e-09 0.79319903313142903 0.58409315646764337 -3.7655775594185025e-05
  1.2800000000000039e-09 0.79313779133323958 0.58420117789684145 -0.00034494170228106834
  1.2850000000000039e-09 0.7929438880172287 0.58449053933478012 -0.00063704450732875184
  1.290000000000004e-09 0.7926262820716049 0.58494510869905403 -0.00089043901200525348
  1.2950000000000041e-09 0.79220436729634913 0.58553471564450377 -0.001083637186146039
  1.3000000000000042e-09 0.79170701248796527 0.58621719619775836 -0.0011991931081398774
  1.3050000000000043e-09 0.79117063423142109 0.58694166754556165 -0.0012254489536824484
  1.3100000000000044e-09 0.790636423619135 0.58765269519730323 -0.0011578411661806089
  1.3150000000000045e-09 0.79014695247372624 0.5882949202902189 -0.00099960007749291032
  1.3200000000000045e-09 0.78974242538438433 0.58881776659830387 -0.00076172800605238161
  1.3250000000000046e-09 0.78945694485530105 0.58917978923915015 -0.00046223826604630794
  1.3300000000000047e-09 0.78931521520494774 0.58935221057029064 -0.00012469840823116368
  1.3350000000000048e-09 0.78933007925090815 0.58932129724158244 0.00022379087012210894
  1.3400000000000049e-09 0.78950117555987742 0.58908941236970758 0.00055501037548357933
  1.345000000000005e-09 0.78981485823980191 0.5886747456045095 0.00084217630253361267
  1.3500000000000051e-09 0.79024540222723005 0.5881097913212936 0.0010623475296124326
  1.3550000000000051e-09 0.79075737972184001 0.58743870003092058 0.0011984310409673196
  1.3600000000000052e-09 0.79130894496746551 0.58671368866064055 0.0012406009237332179
  1.3650000000000053e-09 0.79185563354771982 0.5859908096335138 0.0011870077564074741
  1.3700000000000054e-09 0.79235427386944202 0.58532541588699583 0.0010437197437995244
  1.3750000000000055e-09 0.79276666265188334 0.58476765167756484 0.00082394956582617187
  1.3800000000000056e-09 0.79306268365981947 0.58435835677408798 0.00054670243289694576
  1.3850000000000057e-09 0.79322258733297812 0.58412581807335739 0.00023501387443912111
  1.3900000000000057e-09 0.79323825081287203 0.58408370453955483 -8.6062399244049147e-05
  1.3950000000000058e-09 0.79311337231937984 0.58423032597369895 -0.00039155536867790334
  1.4000000000000059e-09 0.79286265030158265 0.58454921854234065 -0.00065859226134395695
  1.405000000000006e-09 0.79251006157659776 0.58501096876686798 -0.00086816625801420903
  1.4100000000000061e-09 0.79208642218768155 0.58557609829830459 -0.0010065278220843968
  1.4150000000000062e-09 0.79162648767717547 0.58619872423455255 -0.0010661064568672979
  1.4200000000000063e-09 0.7911658972814416 0.58683060433625045 -0.001045889675893573
  1.4250000000000063e-09 0.7907382467210653 0.58742515446770893 -0.00095122113600675342
  1.4300000000000064e-09 0.79037252817107517 0.58794108565872594 -0.00079304669807257874
  1.4350000000000065e-09 0.79009114975412109 0.5883453616623473 -0.00058669005596410494
  1.4400000000000066e-09 0.78990869406068309 0.5886152341167793 -0.00035027216097233821
  1.4450000000000067e-09 0.78983147246999552 0.58873924262647548 -0.00010293190546030893
  1.4500000000000068e-09 0.7898578163080715 0.5887172187091293 0.0001369432647825794
  1.4550000000000069e-09 0.78997899148465422 0.58855938674081865 0.00035324720897109488
  1.460000000000007e-09 0.79018058808368086 0.5882846943573331 0.00053327902474865723
  1.465000000000007e-09 0.79044420766500167 0.58791856212992399 0.00066836955098624657
  1.4700000000000071e-09 0.79074925628674764 0.58749031004037877 0.00075400900051929124
  1.4750000000000072e-09 0.79107465040009239 0.58703057748445109 0.00078953433017542405
  1.4800000000000073e-09 0.79140028529793527 0.58656902502526276 0.00077749123527868559
  1.4850000000000074e-09 0.79170815939989125 0.58613250926709548 0.00072281976301946551
  1.4900000000000075e-09 0.79198310073617806 0.58574380753296351 0.00063201060652705939
  1.4950000000000076e-09 0.79221308969799498 0.58542091801516982 0.00051235612930310571
  1.5000000000000076e-09 0.79238924544525691 0.58517687994382961 0.00037137078877855239
  1.5050000000000077e-09 0.79250560020401295 0.58501997518688664 0.00021642201616410236
  1.5100000000000078e-09 0.79255878768217336 0.58495416028844849 5.4561187208393117e-05
  1.5150000000000079e-09 0.79254775383502374 0.58497958891308965 -0.00010748754191338241
  1.520000000000008e-09 0.79247356369204547 0.58509310668919245 -0.00026324802906202958
  1.5250000000000081e-09 0.79233935597797656 0.58528860423592566 -0.00040639847447518162
  1.5300000000000082e-09 0.79215044614697894 0.58555716353140264 -0.00053071882567509027
  1.5350000000000082e-09 0.79191452109266314 0.58588701757261141 -0.00063012672142700348
  1.5400000000000083e-09 0.791641822778132 0.58626344721764323 -0.00069883673582710171
  1.5450000000000084e-09 0.79134519893092359 0.58666878832767455 -0.0007316636506308925
  1.5500000000000085e-09 0.79103991533967866 0.58708267243390089 -0.00072445770937127534
  1.5550000000000086e-09 0.79074315619463298 0.58748257694102191 -0.00067463798626534593
  1.5600000000000087e-09 0.79047319351870649 0.58784473499869294 -0.00058176568841077937
  1.5650000000000088e-09 0.79024826591488839 0.58814541283033528 -0.00044807533807873166
  1.5700000000000088e-09 0.79008526232078946 0.5883624886216583 -0.00027886225360880063
  1.5750000000000089e-09 0.78999832715583052 0.58847721874706227 -8.2615732488846658e-05
  1.580000000000009e-09 0.78999749934613894 0.58847605699485916 0.0001291836023713389
  1.5850000000000091e-09 0.79008750913293702 0.58835234793257873 0.00034263219446705812
  1.5900000000000092e-09 0.79026687395835371 0.58810767660004282 0.00054231978336049581
  1.5950000000000093e-09 0.79052743253593272 0.5877526462889221 0.00071253230850762102
  1.6000000000000094e-09 0.79085442202972522 0.58730690710602673 0.00083863911581852227
  1.6050000000000095e-09 0.79122714901565028 0.58679836386184059 0.00090852419296421705
  1.6100000000000095e-09 0.79162023707400997 0.58626158326506972 0.0009139015074885868
  1.6150000000000096e-09 0.79200537609033683 0.58573546206671467 0.00085135017309735357
  1.6200000000000097e-09 0.79235345316383177 0.58526026675948406 0.00072293393367825758
  1.6250000000000098e-09 0.79263690014863464 0.58487426329578129 0.00053631813987820823
  1.6300000000000099e-09 0.79283206449398769 0.58461024730685929 0.00030434981930019955
  1.63500000000001e-09 0.79292138669716017 0.58449233952025781 4.4133808935020097e-05
  1.6400000000000101e-09 0.79289515721958781 0.58453342997801527 -0.00022431249626490805
  1.6450000000000101e-09 0.79275265069192102 0.58473360857748691 -0.0004797183539011353
  1.6500000000000102e-09 0.79250250290446289 0.58507980049754549 -0.00070140332593217434
  1.6550000000000103e-09 0.79216227401768491 0.58554666597199234 -0.00087112978109651342
  1.6600000000000104e-09 0.79175721299416213 0.58609866616316897 -0.00097477108423364462
  1.6650000000000105e-09 0.79131831434018762 0.58669306148535416 -0.001003620078614913
  1.6700000000000106e-09 0.79087981153337261 0.5872835514026028 -0.00095519686632615454
  1.6750000000000107e-09 0.79047630196137142 0.58782422306952098 -0.00083347392497434315
  1.6800000000000107e-09 0.79013975465731623 0.58827342535241456 -0.0006485025817003704
  1.6850000000000108e-09 0.78989669743630253 0.58859718370323744 -0.00041549005314412795
  1.6900000000000109e-09 0.78976587975155399 0.58877185025181156 -0.00015341968315048799
  1.695000000000011e-09 0.78975665840644693 0.58878580665068314 0.00011664973247604411